# vtk DataFile Version 2.0
grid description
ASCII
DATASET UNSTRUCTURED_GRID

POINTS 8674 double
36.969398 165.000000 0.039216
30.136714 165.914315 0.062745
31.337760 157.121680 0.054902
136.612913 517.474444 0.850980
133.680853 518.652041 0.756863
133.186873 513.183080 0.870588
427.172256 112.125000 0.023529
440.000000 106.750000 0.035294
440.000000 117.500000 0.035294
172.980372 636.821281 0.027451
168.000000 636.000000 0.070588
170.184211 633.605263 0.007843
131.539289 635.836899 0.090196
136.312500 643.698864 0.039216
130.000000 645.000000 0.105882
351.826060 140.188013 0.176471
357.763736 153.302198 0.196078
347.648079 160.309968 0.211765
339.000000 278.000000 0.662745
337.000000 273.000000 0.721569
343.000000 274.000000 0.698039
294.213427 643.087907 0.078431
295.989359 639.297885 0.121569
298.007497 641.320639 0.050980
201.000000 646.000000 0.168627
203.500000 649.000000 0.129412
198.125000 649.000000 0.141176
108.000000 100.000000 0.694118
105.600000 101.000000 0.749020
105.000000 97.000000 0.674510
97.000000 118.000000 0.662745
92.000000 124.000000 0.643137
89.564516 116.887097 0.741176
82.651387 253.768571 0.031373
76.000000 247.000000 0.113725
87.944444 246.944444 0.007843
103.727251 205.008381 0.623529
103.000000 206.000000 0.619608
102.500000 204.930556 0.705882
123.000000 378.000000 0.517647
122.000000 382.000000 0.615686
117.000000 378.000000 0.717647
113.601645 316.703289 0.831373
121.000000 324.000000 0.227451
115.000000 327.000000 0.478431
406.340293 501.531857 0.019608
409.000000 499.000000 0.039216
410.000000 501.833333 0.145098
75.517959 399.170007 0.003922
69.215267 394.821183 0.023529
73.394683 390.828436 0.019608
127.575990 631.658910 0.039216
122.637719 632.148312 0.011765
126.277994 627.412764 0.039216
184.652492 563.156197 0.035294
185.937500 559.000000 0.835294
189.000000 563.000000 0.560784
71.068683 598.640633 0.003922
82.270987 582.909278 0.003922
83.367818 603.326039 0.027451
425.343596 532.138865 0.066667
425.290805 534.555990 0.011765
422.873838 534.496410 0.047059
179.500000 392.750000 0.105882
176.000000 390.000000 0.443137
180.000000 390.000000 0.290196
235.000000 136.000000 0.600000
237.000000 139.000000 0.701961
231.000000 139.000000 0.749020
313.000000 169.000000 0.415686
309.660714 170.500000 0.607843
307.830357 166.303571 0.611765
133.000000 382.000000 0.239216
134.000000 378.000000 0.392157
137.000000 382.000000 0.458824
111.128250 641.023108 0.047059
117.666295 634.694298 0.027451
120.187500 641.877423 0.035294
206.642857 326.214286 0.219608
205.000000 322.000000 0.270588
209.000000 321.000000 0.356863
434.443182 32.500000 0.078431
429.000000 34.000000 0.050980
429.000000 31.000000 0.090196
379.000000 102.000000 0.486275
384.000000 107.000000 0.262745
377.071429 108.928571 0.298039
312.334339 359.108663 0.921569
314.948440 349.853426 0.882353
321.562547 352.403083 0.611765
44.000000 90.000000 0.705882
44.016129 84.951613 0.639216
49.841559 83.535556 0.796078
170.000000 35.000000 0.568627
166.000000 35.000000 0.450980
165.000000 31.000000 0.490196
246.441691 45.011630 0.207843
239.705882 54.558824 0.200000
238.799888 45.300447 0.156863
86.786175 126.747229 0.717647
90.500000 130.000000 0.654902
85.845831 131.593750 0.745098
145.899992 66.815620 0.584314
148.376297 67.310594 0.627451
147.921681 69.609252 0.650980
123.000000 189.000000 0.560784
125.230769 192.692308 0.411765
119.000000 191.000000 0.513725
268.500000 129.416800 0.290196
270.000000 126.000000 0.200000
272.000000 130.000000 0.262745
105.804348 162.369565 0.674510
104.000000 159.000000 0.694118
111.064103 160.115385 0.611765
134.382813 61.234375 0.674510
136.451835 59.060206 0.674510
136.000000 63.000000 0.592157
292.468817 247.307347 0.054902
283.404031 252.032313 0.023529
281.455950 238.129958 0.101961
429.499467 517.500000 0.000000
428.000000 518.000000 0.003922
428.000000 517.000000 0.015686
18.261877 189.713776 0.066667
17.118238 183.657244 0.066667
22.991814 185.525556 0.109804
255.000000 316.000000 0.490196
258.000000 317.000000 0.160784
258.000000 321.000000 0.219608
84.333333 296.666667 0.568627
81.558824 294.519608 0.015686
85.995495 294.202703 0.517647
328.588227 353.344881 0.105882
331.000000 359.000000 0.184314
323.000000 363.000000 0.196078
294.000000 339.000000 0.494118
291.666667 340.333333 0.149020
293.000000 338.000000 0.372549
66.266810 460.571048 0.031373
58.500000 442.000000 0.007843
78.566456 442.000000 0.007843
77.417493 380.990517 0.007843
82.500000 384.500000 0.023529
77.854449 387.151476 0.031373
320.640963 611.157738 0.074510
320.423225 616.337378 0.035294
316.942707 613.844709 0.031373
223.516695 642.150607 0.039216
220.655280 640.655280 0.062745
224.303703 635.910646 0.105882
303.060282 515.939718 0.549020
304.000000 513.000000 0.556863
306.000000 515.000000 0.607843
298.337247 638.041155 0.054902
295.797437 636.117737 0.058824
299.438982 635.438982 0.074510
35.832873 130.487830 0.043137
37.799262 126.980295 0.066667
40.000000 129.000000 0.858824
96.000000 113.000000 0.643137
100.000000 113.000000 0.662745
311.000000 42.000000 0.568627
315.576923 43.576923 0.635294
313.665680 48.911243 0.533333
413.125000 10.000000 0.125490
416.596642 14.935695 0.082353
410.437500 14.864210 0.066667
247.291518 25.167854 0.462745
242.280959 21.179460 0.462745
246.849584 20.163159 0.482353
220.553887 92.680247 0.141176
224.990330 88.763740 0.145098
222.449926 97.000000 0.125490
145.000000 635.000000 0.054902
150.500000 631.500000 0.031373
155.850515 634.587629 0.031373
139.000000 649.000000 0.113725
133.625000 649.000000 0.133333
95.111111 455.018519 0.019608
91.000000 465.000000 0.078431
81.526298 455.260660 0.031373
346.875000 219.093750 0.192157
350.949795 220.112449 0.196078
349.408870 224.794959 0.219608
381.018119 23.126988 0.039216
378.187500 18.468750 0.019608
381.928899 17.752785 0.058824
409.516472 50.256030 0.043137
418.000000 49.000000 0.125490
419.353390 63.632734 0.043137
327.125000 10.000000 0.105882
333.000000 14.000000 0.141176
326.000000 14.000000 0.227451
205.449042 100.523522 0.152941
200.857143 97.000000 0.176471
207.963925 97.000000 0.145098
320.000000 79.000000 0.219608
326.000000 65.000000 0.541176
339.000000 75.000000 0.607843
418.194175 275.347088 0.019608
422.000000 276.000000 0.054902
421.000000 278.000000 0.105882
364.329001 358.329001 0.043137
356.000000 365.000000 0.090196
355.000000 355.000000 0.203922
335.928571 48.642857 0.686275
345.188816 50.216776 0.709804
338.522610 61.409233 0.690196
368.000000 59.000000 0.627451
372.000000 63.000000 0.545098
368.125000 65.958333 0.572549
429.041667 50.770833 0.015686
440.000000 63.750000 0.066667
427.930837 71.778247 0.062745
402.832381 91.114566 0.054902
396.459668 85.500000 0.047059
404.944627 81.606006 0.066667
421.000000 43.000000 0.082353
411.189655 41.844828 0.043137
325.000000 55.000000 0.694118
332.000000 201.000000 0.298039
331.000000 198.000000 0.313725
333.000000 199.000000 0.294118
432.684567 275.697110 0.023529
430.136891 270.058004 0.047059
440.000000 268.000000 0.054902
192.792260 103.315803 0.207843
187.000000 100.000000 0.294118
189.826810 97.336595 0.215686
244.375000 109.875000 0.098039
240.000000 113.000000 0.243137
239.000000 110.000000 0.125490
167.557899 176.096200 0.721569
164.329425 174.992837 0.694118
166.027797 171.071017 0.615686
100.000000 108.750000 0.619608
95.648936 108.662234 0.666667
360.326005 317.213232 0.286275
359.079082 313.068406 0.274510
362.500000 315.720144 0.337255
407.346154 478.000000 0.035294
404.750000 478.000000 0.145098
405.275390 475.742312 0.031373
277.267891 195.946422 0.133333
270.644097 186.711806 0.239216
280.947761 182.119403 0.227451
321.793480 347.520161 0.588235
317.519694 344.103925 0.721569
323.000000 341.000000 0.498039
65.000000 41.000000 0.784314
57.000000 47.000000 0.517647
59.000000 40.000000 0.027451
161.250000 88.000000 0.584314
158.000000 89.000000 0.529412
158.000000 87.000000 0.650980
117.136953 97.008823 0.737255
122.000000 93.000000 0.690196
124.902562 97.548358 0.690196
120.000000 147.000000 0.600000
123.000000 141.000000 0.501961
128.954545 144.772727 0.443137
189.388413 18.233048 0.576471
193.000000 17.000000 0.611765
190.000000 22.000000 0.709804
214.700000 33.500000 0.670588
210.000000 33.000000 0.713725
214.000000 29.000000 0.643137
140.928969 16.464485 0.768627
139.000000 13.000000 0.321569
142.906250 13.027344 0.121569
187.088235 52.558824 0.270588
184.000000 55.000000 0.325490
181.795455 52.068182 0.317647
32.558063 124.880746 0.105882
30.733945 124.522238 0.047059
33.194331 123.134007 0.039216
45.726245 111.848429 0.792157
48.518034 115.664120 0.819608
42.595815 116.916471 0.784314
50.933180 34.419757 0.007843
45.829514 40.022718 0.035294
129.328125 12.448242 0.050980
127.000000 11.000000 0.070588
128.093750 10.000000 0.113725
92.000000 16.000000 0.027451
95.000000 18.000000 0.611765
91.000000 22.000000 0.627451
20.541667 51.541667 0.050980
24.337872 55.337872 0.027451
18.477956 61.775067 0.043137
27.191421 67.734315 0.035294
27.000000 60.000000 0.070588
31.000000 61.000000 0.113725
45.484161 20.654171 0.023529
31.500000 10.000000 0.043137
53.000000 10.000000 0.074510
56.310643 116.446177 0.862745
53.729586 121.992581 0.854902
50.914413 119.328043 0.835294
118.620484 175.210398 0.529412
122.368590 177.778846 0.294118
118.000000 180.000000 0.411765
332.500000 236.304072 0.415686
338.000000 236.000000 0.294118
334.000000 239.000000 0.380392
161.883934 180.253573 0.635294
165.194521 182.430188 0.698039
161.500000 186.166667 0.537255
116.000000 136.000000 0.596078
114.000000 131.000000 0.564706
120.500000 130.500000 0.600000
212.720648 76.542105 0.062745
207.495028 76.896854 0.070588
208.350651 73.654876 0.098039
[...]
CELL_DATA 17057
SCALARS scalars float 1
LOOKUP_TABLE lut
0.0000000000
0.0000586304
0.0001172608
0.0001758912
0.0002345216
0.0002931520
0.0003517824
0.0004104128
0.0004690432
0.0005276735
0.0005863039
0.0006449343
0.0007035647
0.0007621951
0.0008208255
0.0008794559
0.0009380863
0.0009967167
0.0010553471
0.0011139775
0.0011726079
0.0012312383
0.0012898687
0.0013484991
0.0014071295
0.0014657598
0.0015243902
0.0015830206
0.0016416510
0.0017002814
0.0017589118
0.0018175422
0.0018761726
0.0019348030
0.0019934334
0.0020520638
0.0021106942
0.0021693246
0.0022279550
0.0022865854
0.0023452158
0.0024038462
0.0024624765
0.0025211069
0.0025797373
0.0026383677
0.0026969981
0.0027556285
0.0028142589
0.0028728893
0.0029315197
0.0029901501
0.0030487805
0.0031074109
0.0031660413
0.0032246717
0.0032833021
0.0033419325
0.0034005629
0.0034591932
0.0035178236
0.0035764540
0.0036350844
0.0036937148
0.0037523452
0.0038109756
0.0038696060
0.0039282364
0.0039868668
0.0040454972
0.0041041276
0.0041627580
0.0042213884
0.0042800188
0.0043386492
0.0043972795
0.0044559099
0.0045145403
0.0045731707
0.0046318011
0.0046904315
0.0047490619
0.0048076923
0.0048663227
0.0049249531
0.0049835835
0.0050422139
0.0051008443
0.0051594747
0.0052181051
0.0052767355
0.0053353659
0.0053939962
0.0054526266
0.0055112570
0.0055698874
0.0056285178
0.0056871482
0.0057457786
0.0058044090
0.0058630394
0.0059216698
0.0059803002
0.0060389306
0.0060975610
0.0061561914
0.0062148218
0.0062734522
0.0063320826
0.0063907129
0.0064493433
0.0065079737
0.0065666041
0.0066252345
0.0066838649
0.0067424953
0.0068011257
0.0068597561
0.0069183865
0.0069770169
0.0070356473
0.0070942777
0.0071529081
0.0072115385
0.0072701689
0.0073287992
0.0073874296
0.0074460600
0.0075046904
0.0075633208
0.0076219512
0.0076805816
0.0077392120
0.0077978424
0.0078564728
0.0079151032
0.0079737336
0.0080323640
0.0080909944
0.0081496248
0.0082082552
0.0082668856
0.0083255159
0.0083841463
0.0084427767
0.0085014071
0.0085600375
0.0086186679
0.0086772983
0.0087359287
0.0087945591
0.0088531895
0.0089118199
0.0089704503
0.0090290807
0.0090877111
0.0091463415
0.0092049719
0.0092636023
0.0093222326
0.0093808630
0.0094394934
0.0094981238
0.0095567542
0.0096153846
0.0096740150
0.0097326454
0.0097912758
0.0098499062
0.0099085366
0.0099671670
0.0100257974
0.0100844278
0.0101430582
0.0102016886
0.0102603189
0.0103189493
0.0103775797
0.0104362101
0.0104948405
0.0105534709
0.0106121013
0.0106707317
0.0107293621
0.0107879925
0.0108466229
0.0109052533
0.0109638837
0.0110225141
0.0110811445
0.0111397749
0.0111984053
0.0112570356
0.0113156660
0.0113742964
0.0114329268
0.0114915572
0.0115501876
0.0116088180
0.0116674484
0.0117260788
0.0117847092
0.0118433396
0.0119019700
0.0119606004
0.0120192308
0.0120778612
0.0121364916
0.0121951220
0.0122537523
0.0123123827
0.0123710131
0.0124296435
0.0124882739
0.0125469043
0.0126055347
0.0126641651
0.0127227955
0.0127814259
0.0128400563
0.0128986867
0.0129573171
0.0130159475
0.0130745779
0.0131332083
0.0131918386
0.0132504690
0.0133090994
0.0133677298
0.0134263602
0.0134849906
0.0135436210
0.0136022514
0.0136608818
0.0137195122
0.0137781426
0.0138367730
0.0138954034
0.0139540338
0.0140126642
0.0140712946
0.0141299250
0.0141885553
0.0142471857
0.0143058161
0.0143644465
0.0144230769
0.0144817073
0.0145403377
0.0145989681
0.0146575985
0.0147162289
0.0147748593
0.0148334897
0.0148921201
0.0149507505
0.0150093809
0.0150680113
0.0151266417
0.0151852720
0.0152439024
0.0153025328
0.0153611632
0.0154197936
0.0154784240
0.0155370544
0.0155956848
0.0156543152
0.0157129456
0.0157715760
0.0158302064
0.0158888368
0.0159474672
0.0160060976
0.0160647280
0.0161233583
0.0161819887
0.0162406191
0.0162992495
0.0163578799
0.0164165103
0.0164751407
0.0165337711
0.0165924015
0.0166510319
0.0167096623
0.0167682927
0.0168269231
0.0168855535
0.0169441839
0.0170028143
0.0170614447
0.0171200750
0.0171787054
0.0172373358
0.0172959662
0.0173545966
0.0174132270
0.0174718574
0.0175304878
0.0175891182
0.0176477486
0.0177063790
0.0177650094
0.0178236398
0.0178822702
0.0179409006
0.0179995310
0.0180581614
0.0181167917
0.0181754221
0.0182340525
0.0182926829
0.0183513133
0.0184099437
0.0184685741
0.0185272045
0.0185858349
0.0186444653
0.0187030957
0.0187617261
0.0188203565
0.0188789869
0.0189376173
0.0189962477
0.0190548780
0.0191135084
0.0191721388
0.0192307692
0.0192893996
0.0193480300
0.0194066604
0.0194652908
0.0195239212
0.0195825516
0.0196411820
0.0196998124
0.0197584428
0.0198170732
0.0198757036
0.0199343340
0.0199929644
0.0200515947
0.0201102251
0.0201688555
0.0202274859
0.0202861163
0.0203447467
0.0204033771
0.0204620075
0.0205206379
0.0205792683
0.0206378987
0.0206965291
0.0207551595
0.0208137899
0.0208724203
0.0209310507
0.0209896811
0.0210483114
0.0211069418
0.0211655722
0.0212242026
0.0212828330
0.0213414634
0.0214000938
0.0214587242
0.0215173546
0.0215759850
0.0216346154
0.0216932458
0.0217518762
0.0218105066
0.0218691370
0.0219277674
0.0219863977
0.0220450281
0.0221036585
0.0221622889
0.0222209193
0.0222795497
0.0223381801
0.0223968105
0.0224554409
0.0225140713
0.0225727017
0.0226313321
0.0226899625
0.0227485929
0.0228072233
0.0228658537
0.0229244841
0.0229831144
0.0230417448
0.0231003752
0.0231590056
0.0232176360
0.0232762664
0.0233348968
0.0233935272
0.0234521576
0.0235107880
0.0235694184
0.0236280488
0.0236866792
0.0237453096
0.0238039400
0.0238625704
0.0239212008
0.0239798311
0.0240384615
0.0240970919
0.0241557223
0.0242143527
0.0242729831
0.0243316135
0.0243902439
0.0244488743
0.0245075047
0.0245661351
0.0246247655
0.0246833959
0.0247420263
0.0248006567
0.0248592871
0.0249179174
0.0249765478
0.0250351782
0.0250938086
0.0251524390
0.0252110694
0.0252696998
0.0253283302
0.0253869606
0.0254455910
0.0255042214
0.0255628518
0.0256214822
0.0256801126
0.0257387430
0.0257973734
0.0258560038
0.0259146341
0.0259732645
0.0260318949
0.0260905253
0.0261491557
0.0262077861
0.0262664165
0.0263250469
0.0263836773
0.0264423077
0.0265009381
0.0265595685
0.0266181989
0.0266768293
0.0267354597
0.0267940901
0.0268527205
0.0269113508
0.0269699812
0.0270286116
0.0270872420
0.0271458724
0.0272045028
0.0272631332
0.0273217636
0.0273803940
0.0274390244
0.0274976548
0.0275562852
0.0276149156
0.0276735460
0.0277321764
0.0277908068
0.0278494371
0.0279080675
0.0279666979
0.0280253283
0.0280839587
0.0281425891
0.0282012195
0.0282598499
0.0283184803
0.0283771107
0.0284357411
0.0284943715
0.0285530019
0.0286116323
0.0286702627
0.0287288931
0.0287875235
0.0288461538
0.0289047842
0.0289634146
0.0290220450
0.0290806754
0.0291393058
0.0291979362
0.0292565666
0.0293151970
0.0293738274
0.0294324578
0.0294910882
0.0295497186
0.0296083490
0.0296669794
0.0297256098
0.0297842402
0.0298428705
0.0299015009
0.0299601313
0.0300187617
0.0300773921
0.0301360225
0.0301946529
0.0302532833
0.0303119137
0.0303705441
0.0304291745
0.0304878049
0.0305464353
0.0306050657
0.0306636961
0.0307223265
0.0307809568
0.0308395872
0.0308982176
0.0309568480
0.0310154784
0.0310741088
0.0311327392
0.0311913696
0.0312500000
0.0313086304
0.0313672608
0.0314258912
0.0314845216
0.0315431520
0.0316017824
0.0316604128
0.0317190432
0.0317776735
0.0318363039
0.0318949343
0.0319535647
0.0320121951
0.0320708255
0.0321294559
0.0321880863
0.0322467167
0.0323053471
0.0323639775
0.0324226079
0.0324812383
0.0325398687
0.0325984991
0.0326571295
0.0327157598
0.0327743902
0.0328330206
0.0328916510
0.0329502814
0.0330089118
0.0330675422
0.0331261726
0.0331848030
0.0332434334
0.0333020638
0.0333606942
0.0334193246
0.0334779550
0.0335365854
0.0335952158
0.0336538462
0.0337124765
0.0337711069
0.0338297373
0.0338883677
0.0339469981
0.0340056285
0.0340642589
0.0341228893
0.0341815197
0.0342401501
0.0342987805
0.0343574109
0.0344160413
0.0344746717
0.0345333021
0.0345919325
0.0346505629
0.0347091932
0.0347678236
0.0348264540
0.0348850844
0.0349437148
0.0350023452
0.0350609756
0.0351196060
0.0351782364
0.0352368668
0.0352954972
0.0353541276
0.0354127580
0.0354713884
0.0355300188
0.0355886492
0.0356472795
0.0357059099
0.0357645403
0.0358231707
0.0358818011
0.0359404315
0.0359990619
0.0360576923
0.0361163227
0.0361749531
0.0362335835
0.0362922139
0.0363508443
0.0364094747
0.0364681051
0.0365267355
0.0365853659
0.0366439962
0.0367026266
0.0367612570
0.0368198874
0.0368785178
0.0369371482
0.0369957786
0.0370544090
0.0371130394
0.0371716698
0.0372303002
0.0372889306
0.0373475610
0.0374061914
0.0374648218
0.0375234522
0.0375820826
0.0376407129
0.0376993433
0.0377579737
0.0378166041
0.0378752345
0.0379338649
0.0379924953
0.0380511257
0.0381097561
0.0381683865
0.0382270169
0.0382856473
0.0383442777
0.0384029081
0.0384615385
0.0385201689
0.0385787992
0.0386374296
0.0386960600
0.0387546904
0.0388133208
0.0388719512
0.0389305816
0.0389892120
0.0390478424
0.0391064728
0.0391651032
0.0392237336
0.0392823640
0.0393409944
0.0393996248
0.0394582552
0.0395168856
0.0395755159
0.0396341463
0.0396927767
0.0397514071
0.0398100375
0.0398686679
0.0399272983
0.0399859287
0.0400445591
0.0401031895
0.0401618199
0.0402204503
0.0402790807
0.0403377111
0.0403963415
0.0404549719
0.0405136023
0.0405722326
0.0406308630
0.0406894934
0.0407481238
0.0408067542
0.0408653846
0.0409240150
0.0409826454
0.0410412758
0.0410999062
0.0411585366
0.0412171670
0.0412757974
0.0413344278
0.0413930582
0.0414516886
0.0415103189
0.0415689493
0.0416275797
0.0416862101
0.0417448405
0.0418034709
0.0418621013
0.0419207317
0.0419793621
0.0420379925
0.0420966229
0.0421552533
0.0422138837
0.0422725141
0.0423311445
0.0423897749
0.0424484053
0.0425070356
0.0425656660
0.0426242964
0.0426829268
0.0427415572
0.0428001876
0.0428588180
0.0429174484
0.0429760788
0.0430347092
0.0430933396
0.0431519700
0.0432106004
0.0432692308
0.0433278612
0.0433864916
0.0434451220
0.0435037523
0.0435623827
0.0436210131
0.0436796435
0.0437382739
0.0437969043
0.0438555347
0.0439141651
0.0439727955
0.0440314259
0.0440900563
0.0441486867
0.0442073171
0.0442659475
0.0443245779
0.0443832083
0.0444418386
0.0445004690
0.0445590994
0.0446177298
0.0446763602
0.0447349906
0.0447936210
0.0448522514
0.0449108818
0.0449695122
0.0450281426
0.0450867730
0.0451454034
0.0452040338
0.0452626642
0.0453212946
0.0453799250
0.0454385553
0.0454971857
0.0455558161
0.0456144465
0.0456730769
0.0457317073
0.0457903377
0.0458489681
0.0459075985
0.0459662289
0.0460248593
0.0460834897
0.0461421201
0.0462007505
0.0462593809
0.0463180113
0.0463766417
0.0464352720
0.0464939024
0.0465525328
0.0466111632
0.0466697936
0.0467284240
0.0467870544
0.0468456848
0.0469043152
0.0469629456
0.0470215760
0.0470802064
0.0471388368
0.0471974672
0.0472560976
0.0473147280
0.0473733583
0.0474319887
0.0474906191
0.0475492495
0.0476078799
0.0476665103
0.0477251407
0.0477837711
0.0478424015
0.0479010319
0.0479596623
0.0480182927
0.0480769231
0.0481355535
0.0481941839
0.0482528143
0.0483114447
0.0483700750
0.0484287054
0.0484873358
0.0485459662
0.0486045966
0.0486632270
0.0487218574
0.0487804878
0.0488391182
0.0488977486
0.0489563790
0.0490150094
0.0490736398
0.0491322702
0.0491909006
0.0492495310
0.0493081614
0.0493667917
0.0494254221
0.0494840525
0.0495426829
0.0496013133
0.0496599437
0.0497185741
0.0497772045
0.0498358349
0.0498944653
0.0499530957
0.0500117261
0.0500703565
0.0501289869
0.0501876173
0.0502462477
0.0503048780
0.0503635084
0.0504221388
0.0504807692
0.0505393996
0.0505980300
0.0506566604
0.0507152908
0.0507739212
0.0508325516
0.0508911820
0.0509498124
0.0510084428
0.0510670732
0.0511257036
0.0511843340
0.0512429644
0.0513015947
0.0513602251
0.0514188555
0.0514774859
0.0515361163
0.0515947467
0.0516533771
0.0517120075
0.0517706379
0.0518292683
0.0518878987
0.0519465291
0.0520051595
0.0520637899
0.0521224203
0.0521810507
0.0522396811
0.0522983114
0.0523569418
0.0524155722
0.0524742026
0.0525328330
0.0525914634
0.0526500938
0.0527087242
0.0527673546
0.0528259850
0.0528846154
0.0529432458
0.0530018762
0.0530605066
0.0531191370
0.0531777674
0.0532363977
0.0532950281
0.0533536585
0.0534122889
0.0534709193
0.0535295497
0.0535881801
0.0536468105
0.0537054409
0.0537640713
0.0538227017
0.0538813321
0.0539399625
0.0539985929
0.0540572233
0.0541158537
0.0541744841
0.0542331144
0.0542917448
0.0543503752
0.0544090056
0.0544676360
0.0545262664
0.0545848968
0.0546435272
0.0547021576
0.0547607880
0.0548194184
0.0548780488
0.0549366792
0.0549953096
0.0550539400
0.0551125704
0.0551712008
0.0552298311
0.0552884615
0.0553470919
0.0554057223
0.0554643527
0.0555229831
0.0555816135
0.0556402439
0.0556988743
0.0557575047
0.0558161351
0.0558747655
0.0559333959
0.0559920263
0.0560506567
0.0561092871
0.0561679174
0.0562265478
0.0562851782
0.0563438086
0.0564024390
0.0564610694
0.0565196998
0.0565783302
0.0566369606
0.0566955910
0.0567542214
0.0568128518
0.0568714822
0.0569301126
0.0569887430
0.0570473734
0.0571060038
0.0571646341
0.0572232645
0.0572818949
0.0573405253
0.0573991557
0.0574577861
0.0575164165
0.0575750469
0.0576336773
0.0576923077
0.0577509381
0.0578095685
0.0578681989
0.0579268293
0.0579854597
0.0580440901
0.0581027205
0.0581613508
0.0582199812
0.0582786116
0.0583372420
0.0583958724
0.0584545028
0.0585131332
0.0585717636
0.0586303940
0.0586890244
0.0587476548
0.0588062852
0.0588649156
0.0589235460
0.0589821764
0.0590408068
0.0590994371
0.0591580675
0.0592166979
0.0592753283
0.0593339587
0.0593925891
0.0594512195
0.0595098499
0.0595684803
0.0596271107
0.0596857411
0.0597443715
0.0598030019
0.0598616323
0.0599202627
0.0599788931
0.0600375235
0.0600961538
0.0601547842
0.0602134146
0.0602720450
0.0603306754
0.0603893058
0.0604479362
0.0605065666
0.0605651970
0.0606238274
0.0606824578
0.0607410882
0.0607997186
0.0608583490
0.0609169794
0.0609756098
0.0610342402
0.0610928705
0.0611515009
0.0612101313
0.0612687617
0.0613273921
0.0613860225
0.0614446529
0.0615032833
0.0615619137
0.0616205441
0.0616791745
0.0617378049
0.0617964353
0.0618550657
0.0619136961
0.0619723265
0.0620309568
0.0620895872
0.0621482176
0.0622068480
0.0622654784
0.0623241088
0.0623827392
0.0624413696
0.0625000000
0.0625586304
0.0626172608
0.0626758912
0.0627345216
0.0627931520
0.0628517824
0.0629104128
0.0629690432
0.0630276735
0.0630863039
0.0631449343
0.0632035647
0.0632621951
0.0633208255
0.0633794559
0.0634380863
0.0634967167
0.0635553471
0.0636139775
0.0636726079
0.0637312383
0.0637898687
0.0638484991
0.0639071295
0.0639657598
0.0640243902
0.0640830206
0.0641416510
0.0642002814
0.0642589118
0.0643175422
0.0643761726
0.0644348030
0.0644934334
0.0645520638
0.0646106942
0.0646693246
0.0647279550
0.0647865854
0.0648452158
0.0649038462
0.0649624765
0.0650211069
0.0650797373
0.0651383677
0.0651969981
0.0652556285
0.0653142589
0.0653728893
0.0654315197
0.0654901501
0.0655487805
0.0656074109
0.0656660413
0.0657246717
0.0657833021
0.0658419325
0.0659005629
0.0659591932
0.0660178236
0.0660764540
0.0661350844
0.0661937148
0.0662523452
0.0663109756
0.0663696060
0.0664282364
0.0664868668
0.0665454972
0.0666041276
0.0666627580
0.0667213884
0.0667800188
0.0668386492
0.0668972795
0.0669559099
0.0670145403
0.0670731707
0.0671318011
0.0671904315
0.0672490619
0.0673076923
0.0673663227
0.0674249531
0.0674835835
0.0675422139
0.0676008443
0.0676594747
0.0677181051
0.0677767355
0.0678353659
0.0678939962
0.0679526266
0.0680112570
0.0680698874
0.0681285178
0.0681871482
0.0682457786
0.0683044090
0.0683630394
0.0684216698
0.0684803002
0.0685389306
0.0685975610
0.0686561914
0.0687148218
0.0687734522
0.0688320826
0.0688907129
0.0689493433
0.0690079737
0.0690666041
0.0691252345
0.0691838649
0.0692424953
0.0693011257
0.0693597561
0.0694183865
0.0694770169
0.0695356473
0.0695942777
0.0696529081
0.0697115385
0.0697701689
0.0698287992
0.0698874296
0.0699460600
0.0700046904
0.0700633208
0.0701219512
0.0701805816
0.0702392120
0.0702978424
0.0703564728
0.0704151032
0.0704737336
0.0705323640
0.0705909944
0.0706496248
0.0707082552
0.0707668856
0.0708255159
0.0708841463
0.0709427767
0.0710014071
0.0710600375
0.0711186679
0.0711772983
0.0712359287
0.0712945591
0.0713531895
0.0714118199
0.0714704503
0.0715290807
0.0715877111
0.0716463415
0.0717049719
0.0717636023
0.0718222326
0.0718808630
0.0719394934
0.0719981238
0.0720567542
0.0721153846
0.0721740150
0.0722326454
0.0722912758
0.0723499062
0.0724085366
0.0724671670
0.0725257974
0.0725844278
0.0726430582
0.0727016886
0.0727603189
0.0728189493
0.0728775797
0.0729362101
0.0729948405
0.0730534709
0.0731121013
0.0731707317
0.0732293621
0.0732879925
0.0733466229
0.0734052533
0.0734638837
0.0735225141
0.0735811445
0.0736397749
0.0736984053
0.0737570356
0.0738156660
0.0738742964
0.0739329268
0.0739915572
0.0740501876
0.0741088180
0.0741674484
0.0742260788
0.0742847092
0.0743433396
0.0744019700
0.0744606004
0.0745192308
0.0745778612
0.0746364916
0.0746951220
0.0747537523
0.0748123827
0.0748710131
0.0749296435
0.0749882739
0.0750469043
0.0751055347
0.0751641651
0.0752227955
0.0752814259
0.0753400563
0.0753986867
0.0754573171
0.0755159475
0.0755745779
0.0756332083
0.0756918386
0.0757504690
0.0758090994
0.0758677298
0.0759263602
0.0759849906
0.0760436210
0.0761022514
0.0761608818
0.0762195122
0.0762781426
0.0763367730
0.0763954034
0.0764540338
0.0765126642
0.0765712946
0.0766299250
0.0766885553
0.0767471857
0.0768058161
0.0768644465
0.0769230769
0.0769817073
0.0770403377
0.0770989681
0.0771575985
0.0772162289
0.0772748593
0.0773334897
0.0773921201
0.0774507505
0.0775093809
0.0775680113
0.0776266417
0.0776852720
0.0777439024
0.0778025328
0.0778611632
0.0779197936
0.0779784240
0.0780370544
0.0780956848
0.0781543152
0.0782129456
0.0782715760
0.0783302064
0.0783888368
0.0784474672
0.0785060976
0.0785647280
0.0786233583
0.0786819887
0.0787406191
0.0787992495
0.0788578799
0.0789165103
0.0789751407
0.0790337711
0.0790924015
0.0791510319
0.0792096623
0.0792682927
0.0793269231
0.0793855535
0.0794441839
0.0795028143
0.0795614447
0.0796200750
0.0796787054
0.0797373358
0.0797959662
0.0798545966
0.0799132270
0.0799718574
0.0800304878
0.0800891182
0.0801477486
0.0802063790
0.0802650094
0.0803236398
0.0803822702
0.0804409006
0.0804995310
0.0805581614
0.0806167917
0.0806754221
0.0807340525
0.0807926829
0.0808513133
0.0809099437
0.0809685741
0.0810272045
0.0810858349
0.0811444653
0.0812030957
0.0812617261
0.0813203565
0.0813789869
0.0814376173
0.0814962477
0.0815548780
0.0816135084
0.0816721388
0.0817307692
0.0817893996
0.0818480300
0.0819066604
0.0819652908
0.0820239212
0.0820825516
0.0821411820
0.0821998124
0.0822584428
0.0823170732
0.0823757036
0.0824343340
0.0824929644
0.0825515947
0.0826102251
0.0826688555
0.0827274859
0.0827861163
0.0828447467
0.0829033771
0.0829620075
0.0830206379
0.0830792683
0.0831378987
0.0831965291
0.0832551595
0.0833137899
0.0833724203
0.0834310507